 Gaussian 16, Revision A.03,
 Gaussian 16:  ES64L-G16RevA.03 25-Dec-2016

 -----------------------------------------------------------
 #p b3lyp/6-311+g(2d,p) pop=(full,nboread) stable=opt g09def
 -----------------------------------------------------------

 -------------
 CF3-c1-1sp+ 1
 -------------
 Symbolic Z-matrix:
 Charge =  1 Multiplicity = 1

                         Standard orientation:
 ---------------------------------------------------------------------
 Center     Atomic      Atomic             Coordinates (Angstroms)
 Number     Number       Type             X           Y           Z
 ---------------------------------------------------------------------
      1          6           0        0.000000    0.000000    0.325941
      2          9           0        0.000000    1.260582   -0.072431
      3          9           0        1.091696   -0.630291   -0.072431
      4          9           0       -1.091696   -0.630291   -0.072431
 ---------------------------------------------------------------------

 SCF Done:  E(RB3LYP) =  -337.262957296     A.U. after    9 cycles

 The electronic state is 1-A1.
 Alpha  occ. eigenvalues --  -25.10779 -25.10779 -25.10778 -10.87224  -1.69397
 Alpha  occ. eigenvalues --   -1.60741  -1.60741  -1.05999  -0.96442  -0.96442
 Alpha  occ. eigenvalues --   -0.91803  -0.82792  -0.82792  -0.79722  -0.79722
 Alpha  occ. eigenvalues --   -0.77501
 Alpha virt. eigenvalues --   -0.53666  -0.20234  -0.19092  -0.19092  -0.14200
 Alpha virt. eigenvalues --   -0.11788  -0.10406  -0.10406   0.00826   0.00826
 Alpha virt. eigenvalues --    0.01531   0.01531   0.01643   0.06021   0.11303

 Mulliken charges:
               1
     1  C    1.104117
     2  F   -0.034706
     3  F   -0.034706
     4  F   -0.034706
 Sum of Mulliken charges =   1.00000

 Dipole moment (field-independent basis, Debye):
    X=             -0.0000    Y=              0.0000    Z=              1.4500  Tot=              1.4500
 Quadrupole moment (field-independent basis, Debye-Ang):
   XX=            -16.2418   YY=            -16.2418   ZZ=            -15.8086
   XY=              0.0000   XZ=             -0.0000   YZ=              0.0000

 Summary of Natural Population Analysis:

                                       Natural Population
                Natural  -----------------------------------------------
    Atom  No    Charge         Core      Valence    Rydberg      Total
 -----------------------------------------------------------------------
      C    1    1.43545      1.99979     2.51395    0.05081     4.56455
      F    2   -0.14515      1.99991     7.13397    0.01126     9.14515
      F    3   -0.14515      1.99991     7.13397    0.01126     9.14515
      F    4   -0.14515      1.99991     7.13397    0.01126     9.14515
 =======================================================================
   * Total *    1.00000      7.99953    23.91587    0.08460    32.00000

 Normal termination of Gaussian 16 at Wed Sep  5 16:47:20 2018.
