 Gaussian 16, Revision A.03,
 Gaussian 16:  ES64L-G16RevA.03 25-Dec-2016

 -----------------------------------------------------------
 #p b3lyp/6-311+g(2d,p) pop=(full,nboread) stable=opt g09def
 -----------------------------------------------------------

 -------------
 CF3-c1-1sp- 1
 -------------
 Symbolic Z-matrix:
 Charge = -1 Multiplicity = 1

                         Standard orientation:
 ---------------------------------------------------------------------
 Center     Atomic      Atomic             Coordinates (Angstroms)
 Number     Number       Type             X           Y           Z
 ---------------------------------------------------------------------
      1          6           0        0.000000    0.000000    0.325941
      2          9           0        0.000000    1.260582   -0.072431
      3          9           0        1.091696   -0.630291   -0.072431
      4          9           0       -1.091696   -0.630291   -0.072431
 ---------------------------------------------------------------------

 SCF Done:  E(RB3LYP) =  -337.698988892     A.U. after   11 cycles

 The electronic state is 1-A1.
 Alpha  occ. eigenvalues --  -24.48410 -24.48410 -24.48410 -10.10423  -1.08631
 Alpha  occ. eigenvalues --   -1.00660  -1.00660  -0.46616  -0.36842  -0.36842
 Alpha  occ. eigenvalues --   -0.31130  -0.24981  -0.24981  -0.21892  -0.21892
 Alpha  occ. eigenvalues --   -0.19620   0.06306
 Alpha virt. eigenvalues --    0.18290   0.19873   0.19873   0.21503   0.36639
 Alpha virt. eigenvalues --    0.36639   0.38745   0.41235   0.41235   0.43190
 Alpha virt. eigenvalues --    0.46518   0.46518   0.47147   0.48435   0.50158

 Mulliken charges:
               1
     1  C   -0.490611
     2  F   -0.169796
     3  F   -0.169796
     4  F   -0.169796
 Sum of Mulliken charges =  -1.00000

 Dipole moment (field-independent basis, Debye):
    X=             -0.0000    Y=             -0.0000    Z=             -2.3059  Tot=              2.3059
 Quadrupole moment (field-independent basis, Debye-Ang):
   XX=            -28.0859   YY=            -28.0859   ZZ=            -30.1541
   XY=             -0.0000   XZ=             -0.0000   YZ=              0.0000

 Summary of Natural Population Analysis:

                                       Natural Population
                Natural  -----------------------------------------------
    Atom  No    Charge         Core      Valence    Rydberg      Total
 -----------------------------------------------------------------------
      C    1    0.31360      1.99989     3.50441    0.18210     5.68640
      F    2   -0.43787      1.99991     7.42093    0.01703     9.43787
      F    3   -0.43787      1.99991     7.42093    0.01703     9.43787
      F    4   -0.43787      1.99991     7.42093    0.01703     9.43787
 =======================================================================
   * Total *   -1.00000      7.99964    25.76718    0.23318    34.00000

 Normal termination of Gaussian 16 at Wed Sep  5 16:47:11 2018.
