 Gaussian 16, Revision A.03,
 Gaussian 16:  ES64L-G16RevA.03 25-Dec-2016

 ---------------------------------
 #p b3lyp/6-311+g(2d,p) nmr g09def
 ---------------------------------

 ---------------------------
 X4t-1-c1-r1-NICS-1stdsp 1 3
 ---------------------------
 Symbolic Z-matrix:
 Charge =  0 Multiplicity = 1

                          Input orientation:
 ---------------------------------------------------------------------
 Center     Atomic      Atomic             Coordinates (Angstroms)
 Number     Number       Type             X           Y           Z
 ---------------------------------------------------------------------
      1          6           0       -1.424173    2.118885    0.000127
      2          7           0       -0.212508    2.612179   -0.000037
      3          6           0        0.809862    1.727405   -0.000116
      4          6           0        0.719155    0.345965    0.000034
      5          6           0       -0.612528   -0.199454    0.000073
      6          6           0       -0.978101   -1.576938    0.000016
      7          6           0       -2.290663   -1.978098   -0.000062
      8          6           0       -3.345388   -1.043731   -0.000053
      9          6           0       -3.046629    0.290585    0.000049
     10          6           0       -1.702320    0.735038    0.000105
     11          1           0       -2.251077    2.825872    0.000260
     12          1           0       -0.223769   -2.340076    0.000046
     13          1           0       -2.517148   -3.038131   -0.000108
     14          1           0       -4.374303   -1.382257   -0.000146
     15          1           0        1.785542    2.196417   -0.000306
     16          1           0       -3.834628    1.035644    0.000077
     17          6           0        2.087409   -0.398120   -0.000002
     18          6           0        2.054912   -1.937771    0.000886
     19          6           0        2.879162    0.019013    1.263842
     20          6           0        2.878270    0.017782   -1.264795
     21          1           0        1.573436   -2.345158    0.890843
     22          1           0        3.085948   -2.299394    0.001303
     23          1           0        1.573853   -2.346227   -0.888800
     24          1           0        2.342300   -0.270829    2.170276
     25          1           0        3.852764   -0.478214    1.274310
     26          1           0        3.054607    1.093667    1.310595
     27          1           0        3.053729    1.092399   -1.312542
     28          1           0        3.851813   -0.479555   -1.275595
     29          1           0        2.340677   -0.272773   -2.170570
     30          0           0       -0.403752    1.223336    0.000031
     31          0           0       -0.403640    1.223352    1.000031
 ---------------------------------------------------------------------

 SCF Done:  E(RB3LYP) =  -559.324799781     A.U. after   14 cycles

      1  C    Isotropic =    25.6881   Anisotropy =   142.3792

      2  N    Isotropic =   -84.0300   Anisotropy =   554.0304

      3  C    Isotropic =    28.0720   Anisotropy =   158.6751

      4  C    Isotropic =    39.2850   Anisotropy =   180.8644

      5  C    Isotropic =    42.5247   Anisotropy =   206.7638

      6  C    Isotropic =    53.6951   Anisotropy =   177.5442

      7  C    Isotropic =    50.6398   Anisotropy =   181.6032

      8  C    Isotropic =    54.2039   Anisotropy =   179.8459

      9  C    Isotropic =    48.3463   Anisotropy =   169.0092

     10  C    Isotropic =    48.2814   Anisotropy =   210.8422

     11  H    Isotropic =    22.4653   Anisotropy =     7.6740

     12  H    Isotropic =    22.9368   Anisotropy =    14.6913

     13  H    Isotropic =    24.0841   Anisotropy =     6.8432

     14  H    Isotropic =    24.1576   Anisotropy =     5.1440

     15  H    Isotropic =    22.7566   Anisotropy =    12.9295

     16  H    Isotropic =    23.7322   Anisotropy =     6.7657

     17  C    Isotropic =   137.1259   Anisotropy =    17.6298

     18  C    Isotropic =   148.8198   Anisotropy =    34.0750

     19  C    Isotropic =   146.0229   Anisotropy =    50.0251

     20  C    Isotropic =   146.0241   Anisotropy =    50.0205

     21  H    Isotropic =    29.6920   Anisotropy =     8.0259

     22  H    Isotropic =    30.6043   Anisotropy =     7.2858

     23  H    Isotropic =    29.6920   Anisotropy =     8.0298

     24  H    Isotropic =    30.4646   Anisotropy =     7.2521

     25  H    Isotropic =    30.7144   Anisotropy =     8.7812

     26  H    Isotropic =    30.0833   Anisotropy =     8.0569

     27  H    Isotropic =    30.0846   Anisotropy =     8.0551

     28  H    Isotropic =    30.7137   Anisotropy =     8.7835

     29  H    Isotropic =    30.4649   Anisotropy =     7.2497

     30  Bq   Isotropic =     7.5688   Anisotropy =     7.3586

     31  Bq   Isotropic =    10.4705   Anisotropy =    26.6961

 Alpha  occ. eigenvalues --  -14.30821 -10.20655 -10.20382 -10.20356 -10.19819
 Alpha  occ. eigenvalues --  -10.19402 -10.19103 -10.18661 -10.18601 -10.18362
 Alpha  occ. eigenvalues --  -10.18178 -10.16700 -10.16366 -10.16366  -0.94759
 Alpha  occ. eigenvalues --   -0.86955  -0.83974  -0.78033  -0.77519  -0.74202
 Alpha  occ. eigenvalues --   -0.69434  -0.69397  -0.65404  -0.63503  -0.61667
 Alpha  occ. eigenvalues --   -0.56303  -0.53235  -0.52337  -0.49689  -0.47845
 Alpha  occ. eigenvalues --   -0.46566  -0.45154  -0.44124  -0.43313  -0.43037
 Alpha  occ. eigenvalues --   -0.41933  -0.39772  -0.39698  -0.38976  -0.38006
 Alpha  occ. eigenvalues --   -0.37633  -0.36687  -0.35974  -0.34824  -0.34475
 Alpha  occ. eigenvalues --   -0.32273  -0.29648  -0.27030  -0.25930  -0.23006
 Alpha virt. eigenvalues --   -0.05969  -0.03421  -0.00331   0.00143   0.00695
 Alpha virt. eigenvalues --    0.01497   0.02811   0.02832   0.02849   0.03659
 Alpha virt. eigenvalues --    0.04806   0.04849   0.05180   0.05318   0.05959

 Mulliken charges:
               1
     1  C   -0.263585
     2  N   -0.316139
     3  C   -0.080997
     4  C    0.154664
     5  C    0.630387
     6  C   -0.430566
     7  C   -0.310905
     8  C   -0.233399
     9  C   -0.206981
    10  C    0.492569
    11  H    0.095510
    12  H    0.095940
    13  H    0.085658
    14  H    0.087736
    15  H    0.092945
    16  H    0.089196
    17  C    0.209776
    18  C   -0.447233
    19  C   -0.429464
    20  C   -0.429529
    21  H    0.128386
    22  H    0.128564
    23  H    0.128352
    24  H    0.123970
    25  H    0.121022
    26  H    0.119544
    27  H    0.119582
    28  H    0.121020
    29  H    0.123976
    30  Bq   0.000000
    31  Bq   0.000000
 Sum of Mulliken charges =  -0.00000

 Dipole moment (field-independent basis, Debye):
    X=             -0.1377    Y=             -2.6040    Z=              0.0000  Tot=              2.6076
 Quadrupole moment (field-independent basis, Debye-Ang):
   XX=            -74.8554   YY=            -89.2134   ZZ=            -88.7813
   XY=             -0.5361   XZ=             -0.0002   YZ=              0.0005

 Normal termination of Gaussian 16 at Sun Mar 29 02:04:39 2020.
