 Gaussian 16, Revision A.03,
 Gaussian 16:  ES64L-G16RevA.03 25-Dec-2016

 -----------------------------------------------------------
 #p b3lyp/6-311+g(2d,p) pop=(full,nboread) stable=opt g09def
 -----------------------------------------------------------

 ------------
 CCN-c1-1sp 1
 ------------
 Symbolic Z-matrix:
 Charge =  0 Multiplicity = 2

                         Standard orientation:
 ---------------------------------------------------------------------
 Center     Atomic      Atomic             Coordinates (Angstroms)
 Number     Number       Type             X           Y           Z
 ---------------------------------------------------------------------
      1          6           0        0.307459   -0.000002   -0.000072
      2          6           0        1.060186   -1.293250   -0.000012
      3          1           0        0.395393   -2.155588   -0.001489
      4          1           0        1.713808   -1.358028   -0.877941
      5          1           0        1.711363   -1.359357    0.879677
      6          6           0        1.059993    1.293357    0.000018
      7          1           0        1.712799    1.358600    0.878543
      8          1           0        1.711976    1.359207   -0.879072
      9          1           0        0.395075    2.155601    0.000620
     10          6           0       -1.080092   -0.000153   -0.000013
     11          7           0       -2.246527   -0.000021    0.000018
 ---------------------------------------------------------------------

 SCF Done:  E(UB3LYP) =  -210.802913122     A.U. after   15 cycles

 The electronic state is 2-A.
 Alpha  occ. eigenvalues --  -14.31973 -10.23820 -10.20806 -10.19542 -10.19540
 Alpha  occ. eigenvalues --   -0.91901  -0.83880  -0.72903  -0.67004  -0.50992
 Alpha  occ. eigenvalues --   -0.47538  -0.46439  -0.42095  -0.41818  -0.39684
 Alpha  occ. eigenvalues --   -0.37465  -0.37353  -0.33669  -0.23010
 Alpha virt. eigenvalues --   -0.00804   0.00687   0.02577   0.02911   0.03556
 Alpha virt. eigenvalues --    0.04523   0.05737   0.06812   0.07189   0.07895
 Alpha virt. eigenvalues --    0.08208   0.08485   0.10061   0.12503   0.13245

  Beta  occ. eigenvalues --  -14.31210 -10.22665 -10.21090 -10.19609 -10.19608
  Beta  occ. eigenvalues --   -0.90672  -0.82155  -0.72707  -0.65939  -0.50362
  Beta  occ. eigenvalues --   -0.45922  -0.45752  -0.41524  -0.41455  -0.39535
  Beta  occ. eigenvalues --   -0.36289  -0.34861  -0.33211
  Beta virt. eigenvalues --   -0.11212  -0.00752   0.00861   0.02641   0.03185
  Beta virt. eigenvalues --    0.03532   0.04598   0.05790   0.06809   0.07328
  Beta virt. eigenvalues --    0.07928   0.08419   0.10055   0.10978   0.12537

 Mulliken charges and spin densities:
               1          2
     1  C    0.511047   0.761038
     2  C   -0.488577  -0.062737
     3  H    0.139850   0.001546
     4  H    0.132254   0.038086
     5  H    0.132360   0.038216
     6  C   -0.488575  -0.062734
     7  H    0.132282   0.038135
     8  H    0.132335   0.038166
     9  H    0.139855   0.001545
    10  C   -0.080460  -0.153077
    11  N   -0.262371   0.361816
 Sum of Mulliken charges =  -0.00000   1.00000

 Dipole moment (field-independent basis, Debye):
    X=              4.3830    Y=              0.0001    Z=              0.0001  Tot=              4.3830
 Quadrupole moment (field-independent basis, Debye-Ang):
   XX=            -39.0387   YY=            -28.7346   ZZ=            -30.9143
   XY=             -0.0000   XZ=              0.0002   YZ=             -0.0001

 Summary of Natural Population Analysis:

                                       Natural Population
                Natural  -----------------------------------------------
    Atom  No    Charge         Core      Valence    Rydberg      Total
 -----------------------------------------------------------------------
      C    1    0.35262      0.99952     1.64111    0.00675     2.64738
      C    2   -0.32157      0.99965     2.31628    0.00564     3.32157
      H    3    0.11228      0.00000     0.38719    0.00053     0.38772
      H    4    0.12580      0.00000     0.37367    0.00053     0.37420
      H    5    0.12588      0.00000     0.37359    0.00053     0.37412
      C    6   -0.32157      0.99965     2.31628    0.00564     3.32157
      H    7    0.12583      0.00000     0.37364    0.00053     0.37417
      H    8    0.12585      0.00000     0.37362    0.00053     0.37415
      H    9    0.11228      0.00000     0.38719    0.00053     0.38772
      C   10    0.02986      0.99961     1.95435    0.01618     2.97014
      N   11    0.03275      0.99980     2.45586    0.01159     3.46725
 =======================================================================
   * Total *    0.50000      4.99822    12.95279    0.04899    18.00000

 Normal termination of Gaussian 16 at Wed Sep  5 16:44:15 2018.
