 Gaussian 16, Revision A.03,
 Gaussian 16:  ES64L-G16RevA.03 25-Dec-2016

 -----------------------------------------------------------
 #p b3lyp/6-311+g(2d,p) pop=(full,nboread) stable=opt g09def
 -----------------------------------------------------------

 ------------
 CF2-c1-1sp 1
 ------------
 Symbolic Z-matrix:
 Charge =  0 Multiplicity = 2

                         Standard orientation:
 ---------------------------------------------------------------------
 Center     Atomic      Atomic             Coordinates (Angstroms)
 Number     Number       Type             X           Y           Z
 ---------------------------------------------------------------------
      1          6           0       -0.030426    0.507861   -0.000000
      2          1           0        0.730212    1.292915    0.000000
      3          9           0       -0.030426   -0.241115    1.103620
      4          9           0       -0.030426   -0.241115   -1.103620
 ---------------------------------------------------------------------

 SCF Done:  E(UB3LYP) =  -238.400053983     A.U. after   11 cycles

 The electronic state is 2-A'.
 Alpha  occ. eigenvalues --  -24.72937 -24.72936 -10.35225  -1.29858  -1.24381
 Alpha  occ. eigenvalues --   -0.71765  -0.58702  -0.58547  -0.54174  -0.47074
 Alpha  occ. eigenvalues --   -0.44528  -0.43746  -0.25110
 Alpha virt. eigenvalues --    0.01291   0.03377   0.03493   0.05444   0.14474
 Alpha virt. eigenvalues --    0.17632   0.17674   0.20829   0.23275   0.23692
 Alpha virt. eigenvalues --    0.24872   0.27286   0.30609   0.31734   0.38859

  Beta  occ. eigenvalues --  -24.72553 -24.72553 -10.33675  -1.28923  -1.23587
  Beta  occ. eigenvalues --   -0.69596  -0.57950  -0.57465  -0.50851  -0.45087
  Beta  occ. eigenvalues --   -0.44134  -0.42881
  Beta virt. eigenvalues --   -0.08725   0.01572   0.03643   0.03708   0.06619
  Beta virt. eigenvalues --    0.15358   0.19228   0.19644   0.20871   0.23641
  Beta virt. eigenvalues --    0.23879   0.24994   0.27495   0.30965   0.31756

 Mulliken charges and spin densities:
               1          2
     1  C    0.358359   0.894313
     2  H    0.138279   0.009230
     3  F   -0.248319   0.048228
     4  F   -0.248319   0.048228
 Sum of Mulliken charges =   0.00000   1.00000

 Dipole moment (field-independent basis, Debye):
    X=              0.7568    Y=              1.2247    Z=              0.0000  Tot=              1.4397
 Quadrupole moment (field-independent basis, Debye-Ang):
   XX=            -15.5976   YY=            -15.0909   ZZ=            -17.8078
   XY=              1.0379   XZ=              0.0000   YZ=             -0.0000

 Summary of Natural Population Analysis:

                                       Natural Population
                Natural  -----------------------------------------------
    Atom  No    Charge         Core      Valence    Rydberg      Total
 -----------------------------------------------------------------------
      C    1    0.72092      0.99967     1.25844    0.02096     2.27908
      H    2    0.05953      0.00000     0.43932    0.00115     0.44047
      F    3   -0.14022      0.99996     3.63561    0.00465     4.64022
      F    4   -0.14022      0.99996     3.63561    0.00465     4.64022
 =======================================================================
   * Total *    0.50000      2.99960     8.96898    0.03142    12.00000

 Normal termination of Gaussian 16 at Wed Sep  5 16:46:54 2018.
