 Gaussian 16, Revision A.03,
 Gaussian 16:  ES64L-G16RevA.03 25-Dec-2016

 -----------------------------------------------------------
 #p b3lyp/6-311+g(2d,p) pop=(full,nboread) stable=opt g09def
 -----------------------------------------------------------

 ------------
 CF3-c1-1sp 1
 ------------
 Symbolic Z-matrix:
 Charge =  0 Multiplicity = 2

                         Standard orientation:
 ---------------------------------------------------------------------
 Center     Atomic      Atomic             Coordinates (Angstroms)
 Number     Number       Type             X           Y           Z
 ---------------------------------------------------------------------
      1          6           0        0.000000    0.000000    0.325941
      2          9           0        0.000000    1.260582   -0.072431
      3          9           0        1.091696   -0.630291   -0.072431
      4          9           0       -1.091696   -0.630291   -0.072431
 ---------------------------------------------------------------------

 SCF Done:  E(UB3LYP) =  -337.678602236     A.U. after   10 cycles

 The electronic state is 2-A1.
 Alpha  occ. eigenvalues --  -24.75480 -24.75480 -24.75480 -10.44618  -1.35932
 Alpha  occ. eigenvalues --   -1.27570  -1.27570  -0.73672  -0.63658  -0.63658
 Alpha  occ. eigenvalues --   -0.59953  -0.51107  -0.51107  -0.47947  -0.47947
 Alpha  occ. eigenvalues --   -0.45349  -0.28895
 Alpha virt. eigenvalues --    0.01650   0.04610   0.04610   0.05013   0.16340
 Alpha virt. eigenvalues --    0.16469   0.16469   0.21089   0.21089   0.22806
 Alpha virt. eigenvalues --    0.23165   0.23165   0.27226   0.30894   0.31070

  Beta  occ. eigenvalues --  -24.75113 -24.75113 -24.75112 -10.42978  -1.34994
  Beta  occ. eigenvalues --   -1.26740  -1.26740  -0.72101  -0.62755  -0.62755
  Beta  occ. eigenvalues --   -0.56333  -0.50183  -0.50183  -0.47029  -0.47029
  Beta  occ. eigenvalues --   -0.45039
  Beta virt. eigenvalues --   -0.11802   0.02429   0.04777   0.04777   0.05593
  Beta virt. eigenvalues --    0.17374   0.18123   0.18123   0.21859   0.21859
  Beta virt. eigenvalues --    0.23091   0.23575   0.23575   0.27429   0.30841

 Mulliken charges and spin densities:
               1          2
     1  C    0.789106   0.882728
     2  F   -0.263035   0.039091
     3  F   -0.263035   0.039091
     4  F   -0.263035   0.039091
 Sum of Mulliken charges =  -0.00000   1.00000

 Dipole moment (field-independent basis, Debye):
    X=             -0.0000    Y=             -0.0000    Z=              0.3017  Tot=              0.3017
 Quadrupole moment (field-independent basis, Debye-Ang):
   XX=            -21.1661   YY=            -21.1661   ZZ=            -19.8722
   XY=             -0.0000   XZ=             -0.0000   YZ=              0.0000

 Summary of Natural Population Analysis:

                                       Natural Population
                Natural  -----------------------------------------------
    Atom  No    Charge         Core      Valence    Rydberg      Total
 -----------------------------------------------------------------------
      C    1    0.91614      0.99983     1.05785    0.02617     2.08386
      F    2   -0.13871      0.99996     3.63357    0.00519     4.63871
      F    3   -0.13871      0.99996     3.63357    0.00519     4.63871
      F    4   -0.13871      0.99996     3.63357    0.00519     4.63871
 =======================================================================
   * Total *    0.50000      3.99970    11.95857    0.04173    16.00000

 Normal termination of Gaussian 16 at Wed Sep  5 16:40:37 2018.
