 Gaussian 16, Revision A.03,
 Gaussian 16:  ES64L-G16RevA.03 25-Dec-2016

 -----------------------------------------------------------
 #p b3lyp/6-311+g(2d,p) pop=(full,nboread) stable=opt g09def
 -----------------------------------------------------------

 ------------
 CFM-c1-1sp 1
 ------------
 Symbolic Z-matrix:
 Charge =  0 Multiplicity = 2

                         Standard orientation:
 ---------------------------------------------------------------------
 Center     Atomic      Atomic             Coordinates (Angstroms)
 Number     Number       Type             X           Y           Z
 ---------------------------------------------------------------------
      1          6           0        0.304083    0.051038    0.000000
      2          9           0       -0.057338    0.738395    1.094508
      3          9           0       -0.057338    0.738395   -1.094508
      4          6           0       -0.057338   -1.390114   -0.000000
      5          1           0        0.350110   -1.871703    0.888133
      6          1           0       -1.148601   -1.513238   -0.000000
      7          1           0        0.350110   -1.871703   -0.888133
 ---------------------------------------------------------------------

 SCF Done:  E(UB3LYP) =  -277.740195988     A.U. after   12 cycles

 The electronic state is 2-A'.
 Alpha  occ. eigenvalues --  -24.71435 -24.71435 -10.34315 -10.19908  -1.28481
 Alpha  occ. eigenvalues --   -1.22754  -0.79141  -0.65945  -0.57793  -0.53889
 Alpha  occ. eigenvalues --   -0.53208  -0.46193  -0.44220  -0.44134  -0.41557
 Alpha  occ. eigenvalues --   -0.41292  -0.23208
 Alpha virt. eigenvalues --    0.00429   0.03591   0.04500   0.04593   0.06752
 Alpha virt. eigenvalues --    0.07303   0.08470   0.12455   0.12815   0.13917
 Alpha virt. eigenvalues --    0.19447   0.19665   0.20804   0.23725   0.24626

  Beta  occ. eigenvalues --  -24.71094 -24.71094 -10.32767 -10.19860  -1.27607
  Beta  occ. eigenvalues --   -1.22034  -0.78044  -0.64682  -0.57094  -0.52512
  Beta  occ. eigenvalues --   -0.50650  -0.45095  -0.43338  -0.43281  -0.41345
  Beta  occ. eigenvalues --   -0.40641
  Beta virt. eigenvalues --   -0.07446   0.00796   0.03896   0.04536   0.04569
  Beta virt. eigenvalues --    0.07031   0.07461   0.08968   0.12560   0.13555
  Beta virt. eigenvalues --    0.14339   0.20747   0.20984   0.21265   0.23770

 Mulliken charges and spin densities:
               1          2
     1  C    0.407917   0.918797
     2  F   -0.259726   0.038216
     3  F   -0.259726   0.038216
     4  C   -0.314261  -0.055352
     5  H    0.143702   0.001485
     6  H    0.138392   0.057153
     7  H    0.143702   0.001485
 Sum of Mulliken charges =   0.00000   1.00000

 Dipole moment (field-independent basis, Debye):
    X=             -0.0731    Y=             -2.1465    Z=              0.0000  Tot=              2.1477
 Quadrupole moment (field-independent basis, Debye-Ang):
   XX=            -22.6594   YY=            -21.7009   ZZ=            -24.2064
   XY=              0.0806   XZ=              0.0000   YZ=             -0.0000

 Summary of Natural Population Analysis:

                                       Natural Population
                Natural  -----------------------------------------------
    Atom  No    Charge         Core      Valence    Rydberg      Total
 -----------------------------------------------------------------------
      C    1    0.79505      0.99952     1.18736    0.01807     2.20495
      F    2   -0.15016      0.99996     3.64527    0.00492     4.65016
      F    3   -0.15016      0.99996     3.64527    0.00492     4.65016
      C    4   -0.35822      0.99963     2.35277    0.00582     3.35822
      H    5    0.11460      0.00000     0.38484    0.00056     0.38540
      H    6    0.13428      0.00000     0.36525    0.00047     0.36572
      H    7    0.11460      0.00000     0.38484    0.00056     0.38540
 =======================================================================
   * Total *    0.50000      3.99908    11.96561    0.03531    16.00000

 Normal termination of Gaussian 16 at Wed Sep  5 16:47:35 2018.
