 Gaussian 16, Revision A.03,
 Gaussian 16:  ES64L-G16RevA.03 25-Dec-2016

 -----------------------------------------------------------
 #p b3lyp/6-311+g(2d,p) pop=(full,nboread) stable=opt g09def
 -----------------------------------------------------------

 ------------
 CH3-c1-1sp 1
 ------------
 Symbolic Z-matrix:
 Charge =  0 Multiplicity = 2

                         Standard orientation:
 ---------------------------------------------------------------------
 Center     Atomic      Atomic             Coordinates (Angstroms)
 Number     Number       Type             X           Y           Z
 ---------------------------------------------------------------------
      1          6           0        0.000000    0.000000    0.000016
      2          1           0        0.000000    1.079628   -0.000032
      3          1           0       -0.934985   -0.539814   -0.000032
      4          1           0        0.934985   -0.539814   -0.000032
 ---------------------------------------------------------------------

 SCF Done:  E(UB3LYP) =  -39.8561208827     A.U. after    9 cycles

 The electronic state is 2-A1.
 Alpha  occ. eigenvalues --  -10.18400  -0.69126  -0.42680  -0.42680  -0.23748
 Alpha virt. eigenvalues --    0.01446   0.05417   0.05417   0.07127   0.15213
 Alpha virt. eigenvalues --    0.15398   0.15398   0.40322   0.40322   0.44300
 Alpha virt. eigenvalues --    0.53016   0.58391   0.58391   0.60296   0.60296

  Beta  occ. eigenvalues --  -10.16985  -0.65187  -0.41721  -0.41721
  Beta virt. eigenvalues --   -0.08004   0.01967   0.05412   0.05412   0.09298
  Beta virt. eigenvalues --    0.15651   0.15651   0.16634   0.40666   0.40666
  Beta virt. eigenvalues --    0.46681   0.59074   0.59171   0.59171   0.63923

 Mulliken charges and spin densities:
               1          2
     1  C   -0.328758   1.155247
     2  H    0.109586  -0.051749
     3  H    0.109586  -0.051749
     4  H    0.109586  -0.051749
 Sum of Mulliken charges =  -0.00000   1.00000

 Dipole moment (field-independent basis, Debye):
    X=             -0.0000    Y=             -0.0000    Z=             -0.0001  Tot=              0.0001
 Quadrupole moment (field-independent basis, Debye-Ang):
   XX=             -7.3043   YY=             -7.3043   ZZ=             -9.2401
   XY=              0.0000   XZ=              0.0000   YZ=              0.0000

 Summary of Natural Population Analysis:

                                       Natural Population
                Natural  -----------------------------------------------
    Atom  No    Charge         Core      Valence    Rydberg      Total
 -----------------------------------------------------------------------
      C    1    0.30658      0.99979     1.69120    0.00243     2.69342
      H    2    0.06447      0.00000     0.43507    0.00046     0.43553
      H    3    0.06447      0.00000     0.43507    0.00046     0.43553
      H    4    0.06447      0.00000     0.43507    0.00046     0.43553
 =======================================================================
   * Total *    0.50000      0.99979     2.99640    0.00381     4.00000

 Normal termination of Gaussian 16 at Wed Sep  5 16:41:11 2018.
