 Gaussian 16, Revision A.03,
 Gaussian 16:  ES64L-G16RevA.03 25-Dec-2016

 -----------------------------------------------------------
 #p b3lyp/6-311+g(2d,p) pop=(full,nboread) stable=opt g09def
 -----------------------------------------------------------

 ------------
 CHF-c1-1sp 1
 ------------
 Symbolic Z-matrix:
 Charge =  0 Multiplicity = 2

                         Standard orientation:
 ---------------------------------------------------------------------
 Center     Atomic      Atomic             Coordinates (Angstroms)
 Number     Number       Type             X           Y           Z
 ---------------------------------------------------------------------
      1          6           0        0.028866    0.657177   -0.000000
      2          1           0       -0.216498    1.113724    0.953534
      3          1           0       -0.216498    1.113724   -0.953534
      4          9           0        0.028866   -0.685612    0.000000
 ---------------------------------------------------------------------

 SCF Done:  E(UB3LYP) =  -139.122340543     A.U. after   11 cycles

 The electronic state is 2-A'.
 Alpha  occ. eigenvalues --  -24.70528 -10.26376  -1.24195  -0.70055  -0.52618
 Alpha  occ. eigenvalues --   -0.52268  -0.48552  -0.38338  -0.23143
 Alpha virt. eigenvalues --    0.01408   0.02631   0.04682   0.06224   0.13122
 Alpha virt. eigenvalues --    0.17074   0.18071   0.23037   0.25593   0.26693
 Alpha virt. eigenvalues --    0.33601   0.42092   0.44809   0.50462   0.55791

  Beta  occ. eigenvalues --  -24.70082 -10.24903  -1.23208  -0.67013  -0.51539
  Beta  occ. eigenvalues --   -0.51493  -0.45215  -0.37757
  Beta virt. eigenvalues --   -0.07433   0.01768   0.02936   0.04729   0.07862
  Beta virt. eigenvalues --    0.14083   0.17515   0.19587   0.23247   0.25814
  Beta virt. eigenvalues --    0.26806   0.33699   0.43650   0.45885   0.55629

 Mulliken charges and spin densities:
               1          2
     1  C    0.007525   1.032145
     2  H    0.118439  -0.041411
     3  H    0.118439  -0.041411
     4  F   -0.244402   0.050677
 Sum of Mulliken charges =  -0.00000   1.00000

 Dipole moment (field-independent basis, Debye):
    X=             -0.4536    Y=              1.3300    Z=              0.0000  Tot=              1.4052
 Quadrupole moment (field-independent basis, Debye-Ang):
   XX=            -12.6679   YY=            -11.7133   ZZ=            -10.7139
   XY=             -0.5162   XZ=              0.0000   YZ=             -0.0000

 Summary of Natural Population Analysis:

                                       Natural Population
                Natural  -----------------------------------------------
    Atom  No    Charge         Core      Valence    Rydberg      Total
 -----------------------------------------------------------------------
      C    1    0.52726      0.99965     1.46098    0.01211     2.47274
      H    2    0.05262      0.00000     0.44655    0.00083     0.44738
      H    3    0.05262      0.00000     0.44655    0.00083     0.44738
      F    4   -0.13249      0.99997     3.62832    0.00421     4.63249
 =======================================================================
   * Total *    0.50000      1.99961     5.98239    0.01799     8.00000

 Normal termination of Gaussian 16 at Wed Sep  5 16:48:00 2018.
