 Gaussian 16, Revision A.03,
 Gaussian 16:  ES64L-G16RevA.03 25-Dec-2016

 -----------------------------------------------------------
 #p b3lyp/6-311+g(2d,p) pop=(full,nboread) stable=opt g09def
 -----------------------------------------------------------

 ------------
 Et0-c1-1sp 1
 ------------
 Symbolic Z-matrix:
 Charge =  0 Multiplicity = 2

                         Standard orientation:
 ---------------------------------------------------------------------
 Center     Atomic      Atomic             Coordinates (Angstroms)
 Number     Number       Type             X           Y           Z
 ---------------------------------------------------------------------
      1          6           0       -0.011108    0.795390   -0.000000
      2          1           0        0.070714    1.353308    0.927518
      3          1           0        0.070714    1.353308   -0.927518
      4          6           0       -0.011108   -0.694158    0.000000
      5          1           0       -0.510436   -1.101830   -0.887654
      6          1           0        1.012742   -1.110350    0.000000
      7          1           0       -0.510436   -1.101830    0.887654
 ---------------------------------------------------------------------

 SCF Done:  E(UB3LYP) =  -79.1867894670     A.U. after   12 cycles

 The electronic state is 2-A'.
 Alpha  occ. eigenvalues --  -10.17801 -10.16904  -0.75979  -0.61221  -0.45455
 Alpha  occ. eigenvalues --   -0.41766  -0.39741  -0.36183  -0.20779
 Alpha virt. eigenvalues --    0.01251   0.02924   0.04669   0.05472   0.08101
 Alpha virt. eigenvalues --    0.08222   0.09465   0.13484   0.14275   0.14587
 Alpha virt. eigenvalues --    0.18679   0.21411   0.22908   0.25418   0.39063

  Beta  occ. eigenvalues --  -10.16985 -10.16400  -0.74335  -0.58858  -0.44834
  Beta  occ. eigenvalues --   -0.40270  -0.38944  -0.35739
  Beta virt. eigenvalues --   -0.06043   0.01365   0.03162   0.04683   0.05777
  Beta virt. eigenvalues --    0.08081   0.08210   0.10618   0.14327   0.14659
  Beta virt. eigenvalues --    0.14669   0.19673   0.21753   0.23086   0.26181

 Mulliken charges and spin densities:
               1          2
     1  C   -0.158505   1.086355
     2  H    0.096692  -0.052232
     3  H    0.096692  -0.052232
     4  C   -0.391901  -0.078947
     5  H    0.117129   0.015437
     6  H    0.122763   0.066182
     7  H    0.117129   0.015437
 Sum of Mulliken charges =  -0.00000   1.00000

 Dipole moment (field-independent basis, Debye):
    X=              0.1492    Y=             -0.3089    Z=              0.0000  Tot=              0.3431
 Quadrupole moment (field-independent basis, Debye-Ang):
   XX=            -15.5584   YY=            -14.5974   ZZ=            -13.7983
   XY=              0.2095   XZ=             -0.0000   YZ=             -0.0000

 Summary of Natural Population Analysis:

                                       Natural Population
                Natural  -----------------------------------------------
    Atom  No    Charge         Core      Valence    Rydberg      Total
 -----------------------------------------------------------------------
      C    1    0.36489      0.99975     1.63077    0.00459     2.63511
      H    2    0.06565      0.00000     0.43360    0.00075     0.43435
      H    3    0.06565      0.00000     0.43360    0.00075     0.43435
      C    4   -0.35373      0.99971     2.34806    0.00597     3.35373
      H    5    0.11016      0.00000     0.38915    0.00068     0.38984
      H    6    0.13722      0.00000     0.36225    0.00053     0.36278
      H    7    0.11016      0.00000     0.38915    0.00068     0.38984
 =======================================================================
   * Total *    0.50000      1.99946     5.98658    0.01396     8.00000

 Normal termination of Gaussian 16 at Wed Sep  5 16:41:31 2018.
