 Gaussian 16, Revision A.03,
 Gaussian 16:  ES64L-G16RevA.03 25-Dec-2016

 -----------------------------------------------------------
 #p b3lyp/6-311+g(2d,p) pop=(full,nboread) stable=opt g09def
 -----------------------------------------------------------

 ------------
 ipr-c1-1sp 1
 ------------
 Symbolic Z-matrix:
 Charge =  0 Multiplicity = 2

                         Standard orientation:
 ---------------------------------------------------------------------
 Center     Atomic      Atomic             Coordinates (Angstroms)
 Number     Number       Type             X           Y           Z
 ---------------------------------------------------------------------
      1          6           0        0.000000    0.531689   -0.053041
      2          1           0        0.000005    1.605495    0.120769
      3          6           0        1.301177   -0.197675    0.003716
      4          1           0        1.528275   -0.570287    1.020091
      5          1           0        1.297315   -1.081521   -0.650024
      6          1           0        2.141492    0.440039   -0.293624
      7          6           0       -1.301178   -0.197673    0.003716
      8          1           0       -1.297363   -1.081448   -0.650122
      9          1           0       -1.528211   -0.570403    1.020063
     10          1           0       -2.141507    0.440078   -0.293501
 ---------------------------------------------------------------------

 SCF Done:  E(UB3LYP) =  -118.518034653     A.U. after   12 cycles

 The electronic state is 2-A.
 Alpha  occ. eigenvalues --  -10.17580 -10.16393 -10.16392  -0.78365  -0.69315
 Alpha  occ. eigenvalues --   -0.57323  -0.45516  -0.43154  -0.41235  -0.38900
 Alpha  occ. eigenvalues --   -0.35931  -0.35176  -0.18846
 Alpha virt. eigenvalues --    0.00764   0.02789   0.03273   0.04671   0.06248
 Alpha virt. eigenvalues --    0.07182   0.07865   0.08497   0.10132   0.11415
 Alpha virt. eigenvalues --    0.12221   0.13540   0.15877   0.16604   0.19199

  Beta  occ. eigenvalues --  -10.16477 -10.16477 -10.16183  -0.76679  -0.69072
  Beta  occ. eigenvalues --   -0.55242  -0.45027  -0.41444  -0.40665  -0.38247
  Beta  occ. eigenvalues --   -0.35555  -0.34662
  Beta virt. eigenvalues --   -0.04777   0.00822   0.02800   0.03421   0.04720
  Beta virt. eigenvalues --    0.06287   0.07151   0.07800   0.08638   0.10830
  Beta virt. eigenvalues --    0.11397   0.13290   0.13549   0.15983   0.16890

 Mulliken charges and spin densities:
               1          2
     1  C    0.072910   1.001440
     2  H    0.084514  -0.054320
     3  C   -0.427654  -0.070411
     4  H    0.119227   0.066484
     5  H    0.114487   0.022263
     6  H    0.115229   0.008104
     7  C   -0.427656  -0.070413
     8  H    0.114490   0.022270
     9  H    0.119225   0.066484
    10  H    0.115228   0.008100
 Sum of Mulliken charges =  -0.00000   1.00000

 Dipole moment (field-independent basis, Debye):
    X=              0.0000    Y=             -0.1341    Z=              0.2163  Tot=              0.2544
 Quadrupole moment (field-independent basis, Debye-Ang):
   XX=            -20.9658   YY=            -20.9694   ZZ=            -21.9940
   XY=              0.0000   XZ=              0.0000   YZ=              0.3240

 Summary of Natural Population Analysis:

                                       Natural Population
                Natural  -----------------------------------------------
    Atom  No    Charge         Core      Valence    Rydberg      Total
 -----------------------------------------------------------------------
      C    1    0.41910      0.99969     1.57417    0.00704     2.58090
      H    2    0.06843      0.00000     0.43081    0.00076     0.43157
      C    3   -0.34587      0.99968     2.34015    0.00604     3.34587
      H    4    0.13306      0.00000     0.36641    0.00053     0.36694
      H    5    0.11121      0.00000     0.38807    0.00072     0.38879
      H    6    0.10783      0.00000     0.39166    0.00052     0.39217
      C    7   -0.34587      0.99968     2.34015    0.00604     3.34587
      H    8    0.11122      0.00000     0.38806    0.00072     0.38878
      H    9    0.13306      0.00000     0.36641    0.00053     0.36694
      H   10    0.10782      0.00000     0.39166    0.00052     0.39218
 =======================================================================
   * Total *    0.50000      2.99905     8.97754    0.02341    12.00000

 Normal termination of Gaussian 16 at Wed Sep  5 16:48:47 2018.
