 Gaussian 16, Revision A.03,
 Gaussian 16:  ES64L-G16RevA.03 25-Dec-2016

 -----------------------------------------------------------
 #p b3lyp/6-311+g(2d,p) pop=(full,nboread) stable=opt g09def
 -----------------------------------------------------------

 ------------
 MF3-c1-1sp 1
 ------------
 Symbolic Z-matrix:
 Charge =  0 Multiplicity = 2

                         Standard orientation:
 ---------------------------------------------------------------------
 Center     Atomic      Atomic             Coordinates (Angstroms)
 Number     Number       Type             X           Y           Z
 ---------------------------------------------------------------------
      1          6           0        0.453401    1.425307    0.000000
      2          1           0        0.555160    1.940622    0.942402
      3          1           0        0.555160    1.940622   -0.942402
      4          6           0        0.014469    0.017284    0.000000
      5          9           0       -1.342083   -0.095827   -0.000000
      6          9           0        0.453401   -0.648575   -1.090052
      7          9           0        0.453401   -0.648575    1.090052
 ---------------------------------------------------------------------

 SCF Done:  E(UB3LYP) =  -377.016198142     A.U. after   12 cycles

 The electronic state is 2-A'.
 Alpha  occ. eigenvalues --  -24.72018 -24.72017 -24.71705 -10.43802 -10.23344
 Alpha  occ. eigenvalues --   -1.32341  -1.23804  -1.23359  -0.80792  -0.68354
 Alpha  occ. eigenvalues --   -0.60897  -0.60560  -0.56618  -0.49123  -0.48185
 Alpha  occ. eigenvalues --   -0.47236  -0.44461  -0.43340  -0.42233  -0.41712
 Alpha  occ. eigenvalues --   -0.28409
 Alpha virt. eigenvalues --    0.00490   0.03759   0.04023   0.05614   0.06255
 Alpha virt. eigenvalues --    0.07813   0.07856   0.12161   0.12724   0.13893
 Alpha virt. eigenvalues --    0.15854   0.19381   0.21259   0.22792   0.23293

  Beta  occ. eigenvalues --  -24.71963 -24.71963 -24.71530 -10.43871 -10.21907
  Beta  occ. eigenvalues --   -1.32169  -1.23692  -1.23046  -0.78389  -0.67316
  Beta  occ. eigenvalues --   -0.60789  -0.60095  -0.55640  -0.48649  -0.47873
  Beta  occ. eigenvalues --   -0.46767  -0.44085  -0.43081  -0.42062  -0.40884
  Beta virt. eigenvalues --   -0.12664   0.00801   0.03755   0.04112   0.06251
  Beta virt. eigenvalues --    0.06591   0.07934   0.08115   0.12738   0.12993
  Beta virt. eigenvalues --    0.14399   0.17021   0.19515   0.21333   0.23481

 Mulliken charges and spin densities:
               1          2
     1  C   -0.064895   1.077940
     2  H    0.133182  -0.052391
     3  H    0.133182  -0.052391
     4  C    0.706925  -0.014638
     5  F   -0.289620   0.023150
     6  F   -0.309388   0.009164
     7  F   -0.309388   0.009164
 Sum of Mulliken charges =  -0.00000   1.00000

 Dipole moment (field-independent basis, Debye):
    X=              0.6705    Y=              2.2875    Z=             -0.0000  Tot=              2.3838
 Quadrupole moment (field-independent basis, Debye-Ang):
   XX=            -29.1047   YY=            -24.7907   ZZ=            -27.4969
   XY=              1.1934   XZ=              0.0000   YZ=             -0.0000

 Summary of Natural Population Analysis:

                                       Natural Population
                Natural  -----------------------------------------------
    Atom  No    Charge         Core      Valence    Rydberg      Total
 -----------------------------------------------------------------------
      C    1    0.35575      0.99966     1.63698    0.00760     2.64425
      H    2    0.08040      0.00000     0.41909    0.00051     0.41960
      H    3    0.08040      0.00000     0.41909    0.00051     0.41960
      C    4    0.49111      0.99968     1.48355    0.02566     2.50889
      F    5   -0.16205      0.99996     3.65736    0.00473     4.66205
      F    6   -0.17280      0.99996     3.66797    0.00488     4.67280
      F    7   -0.17280      0.99996     3.66797    0.00488     4.67280
 =======================================================================
   * Total *    0.50000      4.99922    14.95200    0.04877    20.00000

 Normal termination of Gaussian 16 at Wed Sep  5 16:49:08 2018.
