 Gaussian 16, Revision A.03,
 Gaussian 16:  ES64L-G16RevA.03 25-Dec-2016

 -----------------------------------------------------------
 #p b3lyp/6-311+g(2d,p) pop=(full,nboread) stable=opt g09def
 -----------------------------------------------------------

 ------------
 tBu-c1-1sp 1
 ------------
 Symbolic Z-matrix:
 Charge =  0 Multiplicity = 2

                         Standard orientation:
 ---------------------------------------------------------------------
 Center     Atomic      Atomic             Coordinates (Angstroms)
 Number     Number       Type             X           Y           Z
 ---------------------------------------------------------------------
      1          6           0       -0.000024   -0.000082   -0.154388
      2          6           0        0.241947    1.463131    0.015217
      3          1           0        1.190769    1.772858   -0.432226
      4          1           0       -0.557907    2.061470   -0.430326
      5          1           0        0.290525    1.750005    1.080584
      6          6           0        1.146388   -0.941072    0.015159
      7          1           0        0.938612   -1.918962   -0.428467
      8          1           0        2.063420   -0.549382   -0.434259
      9          1           0        1.373585   -1.122974    1.080505
     10          6           0       -1.388334   -0.522072    0.015144
     11          1           0       -2.130567    0.144205   -0.433756
     12          1           0       -1.506250   -1.514475   -0.429260
     13          1           0       -1.662048   -0.622177    1.080408
 ---------------------------------------------------------------------

 SCF Done:  E(UB3LYP) =  -157.849058698     A.U. after   12 cycles

 The electronic state is 2-A.
 Alpha  occ. eigenvalues --  -10.17557 -10.15984 -10.15984 -10.15982  -0.80541
 Alpha  occ. eigenvalues --   -0.69301  -0.69300  -0.53867  -0.44729  -0.44292
 Alpha  occ. eigenvalues --   -0.44289  -0.38869  -0.38864  -0.36980  -0.34800
 Alpha  occ. eigenvalues --   -0.34800  -0.17517
 Alpha virt. eigenvalues --    0.00279   0.03031   0.03032   0.04145   0.05671
 Alpha virt. eigenvalues --    0.05673   0.06572   0.07296   0.07299   0.10625
 Alpha virt. eigenvalues --    0.11268   0.12266   0.12267   0.13241   0.13254

  Beta  occ. eigenvalues --  -10.16172 -10.16064 -10.16064 -10.16057  -0.78875
  Beta  occ. eigenvalues --   -0.69074  -0.69073  -0.52017  -0.43905  -0.43904
  Beta  occ. eigenvalues --   -0.42795  -0.38265  -0.38260  -0.36874  -0.34314
  Beta  occ. eigenvalues --   -0.34313
  Beta virt. eigenvalues --   -0.04034   0.00377   0.03032   0.03033   0.04211
  Beta virt. eigenvalues --    0.05664   0.05666   0.06725   0.07259   0.07261
  Beta virt. eigenvalues --    0.10584   0.12048   0.12246   0.12249   0.13388

 Mulliken charges and spin densities:
               1          2
     1  C    0.324700   0.905098
     2  C   -0.450564  -0.063423
     3  H    0.112646   0.012642
     4  H    0.112626   0.012554
     5  H    0.117124   0.069960
     6  C   -0.450633  -0.063553
     7  H    0.112600   0.012460
     8  H    0.112693   0.012734
     9  H    0.117048   0.070001
    10  C   -0.450581  -0.063672
    11  H    0.112705   0.012705
    12  H    0.112624   0.012493
    13  H    0.117012   0.070001
 Sum of Mulliken charges =  -0.00000   1.00000

 Dipole moment (field-independent basis, Debye):
    X=             -0.0000    Y=              0.0000    Z=              0.2211  Tot=              0.2211
 Quadrupole moment (field-independent basis, Debye-Ang):
   XX=            -27.9081   YY=            -27.9080   ZZ=            -28.6572
   XY=              0.0002   XZ=             -0.0005   YZ=             -0.0008

 Summary of Natural Population Analysis:

                                       Natural Population
                Natural  -----------------------------------------------
    Atom  No    Charge         Core      Valence    Rydberg      Total
 -----------------------------------------------------------------------
      C    1    0.46386      0.99961     1.53032    0.00620     2.53614
      C    2   -0.33582      0.99964     2.33048    0.00570     3.33582
      H    3    0.10816      0.00000     0.39132    0.00053     0.39184
      H    4    0.10810      0.00000     0.39137    0.00053     0.39190
      H    5    0.13159      0.00000     0.36791    0.00050     0.36841
      C    6   -0.33581      0.99964     2.33047    0.00570     3.33581
      H    7    0.10805      0.00000     0.39142    0.00053     0.39195
      H    8    0.10820      0.00000     0.39127    0.00053     0.39180
      H    9    0.13160      0.00000     0.36790    0.00050     0.36840
      C   10   -0.33580      0.99964     2.33046    0.00570     3.33580
      H   11    0.10819      0.00000     0.39129    0.00053     0.39181
      H   12    0.10807      0.00000     0.39141    0.00053     0.39193
      H   13    0.13160      0.00000     0.36790    0.00050     0.36840
 =======================================================================
   * Total *    0.50000      3.99853    11.97351    0.02796    16.00000

 Normal termination of Gaussian 16 at Wed Sep  5 16:56:55 2018.
