 Gaussian 16, Revision A.03,
 Gaussian 16:  ES64L-G16RevA.03 25-Dec-2016

 -----------------------------------------------------------
 #p b3lyp/6-311+g(2d,p) pop=(full,nboread) stable=opt g09def
 -----------------------------------------------------------

 ------------
 TF3-c1-1sp 1
 ------------
 Symbolic Z-matrix:
 Charge =  0 Multiplicity = 2

                         Standard orientation:
 ---------------------------------------------------------------------
 Center     Atomic      Atomic             Coordinates (Angstroms)
 Number     Number       Type             X           Y           Z
 ---------------------------------------------------------------------
      1          6           0        2.117678   -0.062481    0.000023
      2          1           0        2.533607   -0.426603   -0.928483
      3          1           0        2.534933   -0.422373    0.929579
      4          6           0        0.903161    0.796381   -0.001109
      5          1           0        0.866321    1.437535   -0.885581
      6          1           0        0.866393    1.440011    0.881545
      7          6           0       -0.401271    0.011084   -0.000002
      8          9           0       -1.467586    0.841536   -0.001498
      9          9           0       -0.517102   -0.783572   -1.084644
     10          9           0       -0.517386   -0.780017    1.087193
 ---------------------------------------------------------------------

 SCF Done:  E(UB3LYP) =  -416.346566827     A.U. after   13 cycles

 The electronic state is 2-A.
 Alpha  occ. eigenvalues --  -24.71565 -24.71559 -24.71559 -10.43100 -10.21359
 Alpha  occ. eigenvalues --  -10.20594  -1.32095  -1.23316  -1.23292  -0.82823
 Alpha  occ. eigenvalues --   -0.71411  -0.65204  -0.60472  -0.60148  -0.55327
 Alpha  occ. eigenvalues --   -0.49626  -0.47960  -0.47427  -0.45148  -0.43698
 Alpha  occ. eigenvalues --   -0.41992  -0.41926  -0.40389  -0.39372  -0.24325
 Alpha virt. eigenvalues --    0.00410   0.02294   0.03271   0.04123   0.06560
 Alpha virt. eigenvalues --    0.06914   0.07155   0.07359   0.08235   0.11238
 Alpha virt. eigenvalues --    0.11912   0.13469   0.13990   0.14754   0.16980

  Beta  occ. eigenvalues --  -24.71554 -24.71554 -24.71547 -10.42931 -10.21451
  Beta  occ. eigenvalues --  -10.19178  -1.32051  -1.23301  -1.23258  -0.81822
  Beta  occ. eigenvalues --   -0.70159  -0.63530  -0.60401  -0.59941  -0.54772
  Beta  occ. eigenvalues --   -0.49232  -0.47880  -0.47335  -0.44842  -0.43547
  Beta  occ. eigenvalues --   -0.41899  -0.41473  -0.39689  -0.38932
  Beta virt. eigenvalues --   -0.09263   0.00565   0.02512   0.03298   0.04387
  Beta virt. eigenvalues --    0.06591   0.06914   0.07278   0.07377   0.09303
  Beta virt. eigenvalues --    0.11484   0.12244   0.13620   0.14122   0.15099

 Mulliken charges and spin densities:
               1          2
     1  C   -0.180276   1.102539
     2  H    0.120633  -0.054469
     3  H    0.120612  -0.054472
     4  C   -0.254499  -0.062524
     5  H    0.145882   0.017109
     6  H    0.145853   0.016996
     7  C    0.847871   0.025868
     8  F   -0.323043   0.004293
     9  F   -0.311532   0.002328
    10  F   -0.311502   0.002333
 Sum of Mulliken charges =  -0.00000   1.00000

 Dipole moment (field-independent basis, Debye):
    X=              1.9988    Y=              1.1038    Z=             -0.0015  Tot=              2.2834
 Quadrupole moment (field-independent basis, Debye-Ang):
   XX=            -34.5851   YY=            -34.3954   ZZ=            -33.9740
   XY=              0.1588   XZ=              0.0011   YZ=              0.0021

 Summary of Natural Population Analysis:

                                       Natural Population
                Natural  -----------------------------------------------
    Atom  No    Charge         Core      Valence    Rydberg      Total
 -----------------------------------------------------------------------
      C    1    0.38499      0.99972     1.60889    0.00640     2.61501
      H    2    0.07148      0.00000     0.42789    0.00063     0.42852
      H    3    0.07148      0.00000     0.42789    0.00063     0.42852
      C    4   -0.29323      0.99961     2.28349    0.01013     3.29323
      H    5    0.12236      0.00000     0.37680    0.00085     0.37764
      H    6    0.12230      0.00000     0.37685    0.00085     0.37770
      C    7    0.56692      0.99965     1.40587    0.02756     2.43308
      F    8   -0.18111      0.99996     3.67613    0.00502     4.68111
      F    9   -0.18260      0.99996     3.67773    0.00491     4.68260
      F   10   -0.18259      0.99996     3.67772    0.00491     4.68259
 =======================================================================
   * Total *    0.50000      5.99884    17.93926    0.06189    24.00000

 Normal termination of Gaussian 16 at Wed Sep  5 17:05:07 2018.
